200
Lattice="5.000000000000e+00 0.000000000000e+00 0.000000000000e+00 0.000000000000e+00 3.750000000000e+00 0.000000000000e+00 0.000000000000e+00 0.000000000000e+00 3.750000000000e+00" Properties=species:S:1:pos:R:3:vel:R:3:cluster:I:1:mass:R:1:vrot:R:3:arot:R:3:id:I:1 Time=0.008
XX       -1.3075662618e+00 -5.2968868145e-02 -1.5632108946e-01 -5.4616203134e+01 -1.4264172881e+01  1.1017122651e+01          0  1.3043100000e-04 -1.0634146352e+01  1.1780357987e+02  5.3576183452e+01 -5.6172840129e+03 -2.8682566871e+03  7.8199434756e+03        159
XX       -9.1073966115e-01 -4.2356348304e-01 -7.1206561471e-01 -3.6682262983e+01 -2.3167363181e+01 -2.9163031085e+01          0  1.1903580000e-04 -5.1203840867e+00 -1.0381994547e+02  1.3551757607e+02  1.2092828300e+02 -1.4020696018e+02 -1.0282758662e+02          4
XX       -1.0229741473e+00 -1.8757401177e-01 -8.8915018618e-01 -1.6425286223e+00 -1.1973808070e+01 -1.0917958264e+01          0  1.1257140000e-04  1.0232579992e+02 -2.7276915920e+01  6.6877679296e-01  6.0864974386e+04 -1.0171352731e+05  8.3943824386e+04          9
XX       -4.5937492627e-01 -3.1336360943e-01 -2.6317030997e-01 -3.3999714901e+00 -2.6955526351e+00  5.7145194012e-02          0  1.2603000000e-04 -4.0095724695e+00  5.1891511418e+00  4.4602638768e+00  9.5283452542e-01  1.1920121019e+00 -5.2587345189e-01         12
XX       -2.5689314084e-01 -7.4814992165e-01 -7.1250986346e-01 -6.1554744623e+00 -1.6328789435e+01 -1.4141776389e+01          0  1.2183240000e-04 -2.8673152820e+00 -2.6704941518e+01  2.7369651869e+01 -6.5933690387e+01  7.9158972760e+00  6.6691471185e-01         23
XX       -1.1400892270e+00 -3.6152250310e-01 -2.3021780127e-01 -4.0227576314e+01 -1.1700274111e+01  2.1120326245e+00          0  1.2887460000e-04 -3.0792632282e+01  7.4067901144e+01  9.0846556855e+00 -3.8258754465e+03 -1.3665640478e+02  4.6850917047e+02         27
XX       -3.3117653258e-01 -3.9029105517e-01 -8.6502909430e-01 -6.4682810406e+00  2.7852351547e+00 -1.6561619798e+00          0  1.3367100000e-04 -3.4044209840e+00 -2.4190415646e+01 -2.9787229921e+01 -5.7040437969e+02  6.2254072901e+02  2.3807882348e+02         28
XX       -5.7889693678e-01 -6.1748498870e-01 -6.9362108173e-01 -1.4351440818e+01 -1.9196096091e+01 -1.6319419519e+01          0  1.3479300000e-04 -4.8957056159e+01  4.2660022144e+00 -1.6249241125e+01 -2.0946242324e+01 -6.6112432406e+01  4.6033934384e+01         31
XX       -7.6146360874e-01 -6.2454449779e-01 -3.3506942552e-01 -1.4934937768e+01 -1.4327271727e+01 -6.3447379795e+00          0  1.3246020000e-04  1.7909650073e+01 -1.7668849393e+01 -4.6481889603e+01  1.2714480866e+00 -8.0327057175e+00  3.5425464988e+00         33
XX       -5.0489722726e-02 -1.6930887158e-01 -8.8751360464e-01 -1.4446167170e-02  1.3911049292e-01  1.0526224641e-01          0  1.1486280000e-04 -6.0315149320e-01  1.4427265760e-01 -4.2220270711e-01  2.3340255767e-02  6.0935149896e-02 -1.2825145208e-02         49
XX       -6.7511436250e-01 -8.7200068461e-01 -1.2747928187e-01 -1.5481726608e+01 -2.4071594913e+01 -7.7414954839e+00          0  1.2709560000e-04  9.4613112345e+00 -3.6964683257e+01 -3.4046862862e+01  9.4463369387e+01 -1.1159941536e+02  1.4751236935e+02         51
XX       -2.8932971353e-01 -5.3322023249e-01 -2.3640535471e-01 -1.6900871571e+00 -2.1022081787e+00 -3.9963721284e-01          0  1.2161400000e-04 -1.8445504596e+00  5.9912829333e+00  2.7367738227e+00  1.0083972088e+01  9.8406857810e-01 -1.5502747406e+01         54
XX       -3.4703006165e-01 -1.0140991976e+00 -1.7845365759e-01 -5.7155123229e+00 -2.4186621462e+01 -7.2615991437e+00          0  1.2144120000e-04  1.5003589739e+01 -2.3593851011e-01  2.6340483467e+01  5.9618300962e+01 -1.9210887947e+01 -3.4271975449e+01         58
XX       -9.1745106909e-01 -5.6190412946e-01 -1.9444533816e-02 -2.7148358129e+01 -1.0766742078e+01 -3.1098920766e+00          0  1.3491660000e-04 -1.6618136137e+01  3.4550562243e+01 -2.4541288151e+01 -1.2403777653e+03 -1.5335188683e+03  5.7283536321e+02         73
XX       -3.3923177955e-02 -1.0094984269e+00 -1.6377498901e-01 -1.9782755075e+00 -1.8750152627e+01 -5.2204745251e+00          0  1.1962620000e-04  3.1559814152e+01 -3.8512696004e+00  5.2414602583e+00 -3.0892843527e+01 -2.3821793489e+02 -1.0123999988e+02         86
XX       -6.5619590196e-01 -2.6281774270e-01 -8.6237722137e-01 -1.7060404449e+00 -1.5381724107e+01 -1.1427295780e+01          0  1.2845280000e-04  1.1300391684e+02 -1.5523602892e+01  2.2177137666e-01  1.0925847328e+05  2.5940587939e+05  2.1917039878e+04         88
XX       -4.7394818394e-03 -5.6825318388e-01 -8.4024973924e-01  1.5626371345e+00 -9.4058158127e+00 -6.2220103131e+00          0  1.3248720000e-04  4.7663145902e+01  1.2211774822e+01 -1.0376104696e+01 -1.6888038708e+01 -3.6456192446e+01 -9.5918773433e+01         87
XX       -6.1378573258e-01 -1.7291923901e-01 -6.2072359453e-02 -3.3139335588e+00 -2.3600068242e+00  9.4731597769e-01          0  1.2744360000e-04 -6.2100774652e+00  6.4559952891e+00 -7.9909236660e-01 -8.8024582602e-01 -1.0229509326e+00 -1.4174193791e+00        116
XX       -3.3321128451e-01 -1.7851664188e-01 -5.1162251203e-01 -2.4570449024e+00 -5.4096317471e-01 -2.6925717551e+00          0  1.1943660000e-04  5.0070407403e+00 -2.6951753056e+00 -1.7802170156e+00  4.3869728373e-01  1.2985771315e-01  1.0339556069e+00        120
XX       -5.7655394521e-01 -4.7399664986e-02 -3.8819705524e-01 -4.8114524828e+00 -2.4604419228e+00 -3.0483420300e+00          0  1.2176100000e-04 -1.6946225196e+01  8.2005247751e+00  3.8802519217e+00  9.5967259539e+00  2.2302104151e+01 -5.7604564034e+00        136
XX       -6.2580829623e-02 -1.1795408984e-01 -6.4368294879e-01 -1.2468227331e+00 -9.8221284019e-03  5.3294752449e-02          0  1.2576000000e-04 -6.0341902280e-01 -8.2813346038e-01  2.3965329389e+00  5.2117622747e-01 -1.8862994934e-01  6.6584626376e-02        143
XX       -1.2120810800e-01 -8.6348909671e-01 -4.1382611523e-01 -6.0135956531e-01 -1.0760340662e+01 -4.6107797785e+00          0  1.2842220000e-04  2.1656618865e+01 -1.0713844716e+01 -3.7090841495e+00  3.7217790478e+00  2.7986256322e+00  1.3682922348e+01        145
XX       -1.7525282337e-01 -4.0959948137e-01 -4.9060789454e-01 -2.2635529096e+00 -1.9028881390e+00 -1.8994707479e+00          0  1.1860680000e-04  1.7592324106e-02  1.9037152768e+00 -6.4279746114e+00  9.0655172403e-01 -1.3897361621e+00 -4.1072369150e-01        161
XX       -5.0483767607e-01 -8.3437858678e-01 -4.6550243318e-01 -1.0781210475e+01 -1.8423813993e+01 -1.1882333595e+01          0  1.2143400000e-04 -2.9635509269e+01 -7.4961526838e-01  2.1601108375e+01 -1.6536208494e+01  2.5399689476e+01 -2.1889072384e+01        170
XX       -1.3458565290e-01 -2.3431235374e-01 -2.3823895433e-01 -1.9830543005e+00 -1.7943242124e+00 -1.0386619623e+00          0  1.2938220000e-04 -1.6991198452e+00  3.1492796368e+00  1.6877008704e+00  6.0139778313e-01  3.4316581312e-01 -3.4738200567e-02        178
XX        1.0008826575e-01 -3.2444710396e-01 -4.8817268751e-01 -6.4658675552e-01 -2.3801055847e+00 -2.5825155984e+00          0  1.3201440000e-04 -8.7051208407e-01  4.5871023862e+00 -1.7778741528e+00  1.0987098532e+00  1.5911334306e-01 -1.2350283959e-01          0
XX        1.3978456316e-01 -6.1270701884e-01 -5.0511597625e-02 -1.1449193940e+00 -3.4189600517e+00 -1.5720866274e+00          0  1.2738720000e-04 -4.7126866581e+00  5.9270164008e+00 -5.2239462514e+00 -1.3775325018e+00  5.1968940587e+00  2.7574742694e+00          1
XX        2.4445544369e-01 -6.3397099861e-03 -8.7128620937e-01  1.2718757089e+00 -9.8422069630e-01 -4.4253319043e-01          0  1.2488220000e-04 -1.5605879292e+00  5.8279605503e+00 -9.2632739859e+00  8.4336196929e+03 -8.5593499581e+03 -3.2958741164e+03          5
XX        4.7624454254e-01 -7.9211301623e-01 -4.9200193212e-01  8.2408816221e+00 -1.5273482527e+01 -8.8279402310e+00          0  1.1653320000e-04 -6.2846470637e+00  1.3213320804e-01 -1.4588615048e+01  1.4900297813e+01  1.1119110459e+01 -6.2887729438e+00         26
XX        8.5727395622e-01 -7.0219572649e-01 -1.8429064582e-01  3.0607902896e+01 -1.5805879225e+01  3.8191292312e+00          0  1.3262220000e-04 -3.7625738691e+01 -2.9944632647e+01  9.9452414558e+00  6.8216760897e+02 -1.1403619177e+02  8.1316458033e+02         30
XX        8.1577513663e-01 -1.1332163011e-01 -6.0761745153e-01  1.9746232801e+01 -1.1819563879e+00 -6.3731176660e+00          0  1.3274340000e-04 -3.4239747061e+00  6.6872752987e+00  3.5035275461e+00 -2.0284399209e-01  1.6304226246e+00 -3.3044124257e+00         50
XX        2.3468970721e-01 -3.7749733979e-03 -5.8131852902e-01  9.9208313191e-01  8.6502677538e-01 -4.2029106717e-01          0  1.2481560000e-04 -1.7116649516e+00  9.5673896679e+00  8.2777741607e-01 -7.0996562073e+03 -2.6949337998e+03  1.2949404649e+03         53
XX        2.5302629264e-01 -3.4793528467e-01 -8.5852484441e-01  5.8231494767e+00 -8.9630375061e+00 -2.6844046838e+00          0  1.2396840000e-04  5.8927209326e+01  4.0905509458e+01  2.2683916426e-01 -2.8891969179e+04  4.0569252633e+05 -1.4016078694e+04         59
XX        3.8990135263e-01 -2.5207267499e-01 -4.9673259663e-01  2.2207349819e+00 -2.1293998834e+00 -4.0236385011e+00          0  1.1450160000e-04 -1.8874268411e+00  1.3843340157e+01 -1.6712928421e+01  2.3993734875e-01 -9.2529860055e+00 -7.6818507656e+00         62
XX        6.2059558759e-01 -2.5914029967e-01 -8.3945884245e-01  1.5882876270e+01 -5.3545740757e+00 -1.0888417089e+01          0  1.2095520000e-04  4.3619874101e+01  7.7256016674e+01  2.8896400740e+01 -2.5976730529e+00 -4.8008382139e+01  1.3178655362e+02         68
XX        9.4831310333e-01 -4.7104412781e-01 -1.5091932211e-02  2.3160334169e+01 -8.8826081998e+00 -1.9058185086e+00          0  1.2158460000e-04 -3.5638200620e+01 -3.0339056739e+01  9.9334375262e+00  5.2300303428e+00 -2.3143051680e+01 -5.1897870664e+01         70
XX        2.2385155021e-01 -9.0155054734e-01 -3.2005373899e-01  3.2067565038e+00 -1.2911165645e+01 -4.7651543608e+00          0  1.3156620000e-04  9.9174335000e+00  2.3980313134e+00 -3.6634886490e+00 -6.9841116666e+01 -1.2553733128e+01  4.4822808513e+01         82
XX        1.6917671913e-03 -5.4689654621e-01 -2.8341312504e-01 -7.7815765118e-01 -1.6931406756e+00 -1.5413552858e+00          0  1.2666060000e-04 -3.1498271373e+00  5.4208696868e+00 -2.8561336060e+00  2.5644536390e+01 -2.8047205341e+01 -2.6345900735e+01        199
XX        4.1840832279e-01 -6.2115448455e-01 -7.4465421614e-01  1.2763622144e+01 -1.6558162743e+01 -1.2517573903e+01          0  1.3218480000e-04  1.6252766510e+01 -2.4787413366e+01 -2.1418129969e-01 -7.9083258150e+00 -5.3509604178e+00  1.9016453785e+01         98
XX        2.3851168066e-01 -3.0948620461e-02 -2.8565165958e-01  1.7280771407e+00  1.4323130083e+00 -1.1532609883e-01          0  1.2423360000e-04 -1.0453743587e-01  8.3083985395e+00  5.0671933249e+00 -3.1406666983e+03  2.3931232813e+03 -1.5111344450e+02         99
XX        9.9780653117e-01 -3.7850056689e-01 -3.7351847080e-01  2.5670729093e+01 -2.0759851865e+01 -1.6979992262e+00          0  1.2896700000e-04 -2.7989524325e+01  5.2656436737e+00  3.3158872844e+01  2.4616330088e+02 -1.3009836515e+02 -5.1679035213e+02        101
XX        5.3027808920e-01 -8.6582204121e-01 -9.9373450807e-02  1.1362886674e+01 -1.5861868666e+01 -2.2875076318e-01          0  1.4014620000e-04  1.9302584859e+01 -1.9140608421e+01  1.5381047304e+01 -1.2992033395e+01 -1.1232160564e+01  2.3313867879e+00        110
XX        4.5133210490e-01 -4.3717695880e-01 -4.2259127845e-02  2.8316288095e+00 -2.6375634199e+00 -2.4419322106e+00          0  1.2798180000e-04  3.4608453547e+00 -3.1797438998e+00 -6.2960510067e+00 -2.6491365430e+00 -4.6125160819e-01 -1.2249772490e+00        117
XX        1.5519301412e-01 -2.6750654771e-01 -1.7233910884e-01 -2.2307239071e-01  2.3760124948e-01 -2.6336514706e+00          0  1.2702600000e-04  7.4378246886e-01  4.8354415452e+00  5.7693102605e+00  1.7341379272e+01  1.6182512879e+01 -6.5094846669e+01        127
XX        1.3823163497e-01 -7.3385214746e-01 -5.7936302620e-01  4.0346070939e+00 -1.1627795159e+01 -3.7223806660e+00          0  1.4061720000e-04  2.1940195092e+01  9.1879501175e+00  8.6593067816e+00  4.4588956572e+01 -3.0371399811e+01 -5.5437062235e+01        134
XX        5.3604782257e-01 -2.5554820127e-01 -2.3576269480e-01  4.5957841892e+00 -2.3903305376e+00 -1.5904454913e+00          0  1.2793500000e-04  3.4631628635e+00 -3.1908517937e+00 -6.2799613676e+00 -1.4562336823e+00 -2.2924984942e+00  3.6077960495e-01        146
XX        1.2136017871e+00 -1.6671600562e-01 -7.5720716072e-02  4.1861925698e+01 -2.5661254407e+00 -2.4885462329e+00          0  1.2435360000e-04 -3.8180793800e+01 -1.2852478590e+01  5.5592687086e+00 -2.5525966770e+01  7.7437036319e+01  3.7036706446e+00        152
XX        3.1439520184e-01 -4.9809778662e-01 -3.2270309432e-01  1.2292446084e+00 -2.2270924738e+00 -3.3809553695e+00          0  1.2690540000e-04 -2.4890279608e+00  8.5700331774e+00 -6.4301900998e+00 -5.6483806044e+00 -1.8108582597e+00 -2.3907628257e-01        155
XX        8.4354205505e-01 -5.8855281697e-01 -6.7185573490e-01  3.1610545486e+01 -2.2013926428e+01 -2.1671377389e+01          0  1.3129020000e-04 -1.2246754850e+02 -7.4372246128e+01  1.4758867584e+01 -2.5666515667e+02  5.3601988219e+02  5.7046788887e+02        165
XX       -1.2602276099e+00  2.8898681271e-01 -1.1196700984e-01 -5.7935981153e+01 -8.9657349168e+00  2.6558192277e-01          0  1.3006740000e-04  1.7751666604e+01  6.4823093918e+01  5.7453827830e+01  1.3695865795e+03  2.6464223660e+02  3.3101977533e+03        195
XX       -4.8015840615e-01  8.6065138845e-01 -3.5747408667e-02 -2.8478934133e-01  1.8780621945e+01  2.0503695831e+00          0  1.3484940000e-04 -6.1922063369e+00  2.3067134367e+00  3.9339464474e+01 -2.7360369377e+03 -2.7936766273e+03  8.6169536995e+01          7
XX       -6.5040030613e-01  9.1084108032e-01 -3.8635257834e-01 -2.9125296233e+01  2.6169909687e+01 -1.1809073990e+00          0  1.1762280000e-04 -1.7570052264e+01  2.4905638992e+01  1.1147285788e+02 -2.2332284301e+02 -1.9863009572e+02  8.5382465849e+00         17
XX       -2.9768544534e-02  1.8955160707e-01 -8.6036058000e-01  3.2640755825e+00  7.5953574299e+00  2.8227993498e-01          0  1.3496400000e-04  2.0022335715e+00  2.4260508163e-01  4.2299619920e+00  1.3130120183e-01  2.6129296060e-01 -7.7126410777e-02         19
XX       -3.4620992625e-01  4.0149541883e-01 -8.7294029015e-01 -9.2040177075e+00  9.4049481876e+00 -1.0207891815e+00          0  1.3564680000e-04 -6.4114424470e+01 -8.0891993605e+01 -3.5055381020e+00 -1.1032644100e+05  1.2773511367e+05  2.9663962635e+02         36
XX       -3.1005747818e-01  1.1059085096e+00 -4.7744383581e-01 -1.9055978466e+01  4.7998287387e+01 -3.9805999873e+00          0  1.1544360000e-04  5.3644960960e+01  2.7003376457e+01  8.9170306347e+01 -3.8084918540e+02  1.1442572232e+02  1.9439366769e+02         37
XX       -2.4314110278e-01  1.0526342066e+00 -1.3687156899e-01 -3.7563951485e+00  2.8134185350e+01  2.9588475253e+00          0  1.3016460000e-04  2.2097610193e+01  2.1120624911e+01  3.2147145440e+01 -7.8481268327e+01  1.1447941889e+02 -2.1096016334e+01         42
XX       -2.7576058028e-01  5.4261700181e-01 -3.0248917576e-01 -2.2475493408e+00  3.1102715302e+00 -4.9788335392e-01          0  1.1548320000e-04  5.8640454974e-01 -1.6162204412e+00 -1.3789261486e+00  2.5375378023e-01  1.1186886042e-01 -2.2730667472e-02         48
XX       -8.8363792001e-01  5.2444987591e-01 -2.9315684010e-01 -2.9188510823e+01  1.4132095187e+00 -2.8009333342e+00          0  1.2434520000e-04  4.1142406885e+00  1.7229772721e+00  5.7420269517e+01  1.8891735406e+03  1.4063356255e+03 -1.4778102035e+03         55
XX       -9.4683592257e-01  2.3888526207e-01 -4.7764293176e-01 -2.7746663517e+01 -3.8170855154e+00 -1.0967555176e+01          0  1.3660440000e-04 -2.0557482503e+00  5.3162663617e+01  8.8797699012e+01 -5.9564141312e+02  1.1052765910e+02 -1.6144798984e+03        190
XX       -1.7292499259e-01  2.9871207384e-01 -1.6726850914e-01 -9.6872083617e-01  1.2358268893e+00 -5.8882396056e-03          0  1.2574020000e-04  2.2280295453e+00  1.4537046091e+00  2.6955501714e+00 -2.0920973998e-01 -2.9571468191e-01  3.3291621675e-01         80
XX       -4.9017477649e-01  4.0586605961e-01 -1.3585434826e-01 -2.9036702166e+00  8.9229972758e-01  8.3559132026e-01          0  1.1481960000e-04 -1.7576746098e+00  2.5870899901e+00  5.0120068440e+00 -2.2538147966e+00 -1.1248401496e+00 -2.9141379935e-01         95
XX       -7.0196198451e-01  2.0779459492e-01 -8.7228251456e-01  1.1063420904e+00  6.0056432968e-01  6.8092661127e-01          0  1.3678080000e-04 -4.5531630852e-01  4.2057452434e+00 -1.2217517844e+00  4.8675793025e-01  1.0084782303e-01  1.6851638435e-01         97
XX       -4.4741336128e-01  2.6035593118e-01 -3.6903370647e-01 -2.9305466703e+00  1.8220215190e+00 -2.5513106216e-01          0  1.2103140000e-04 -1.4756485279e+00 -5.2724151213e+00 -3.3493624048e+00  1.5621458002e+00  1.1599358113e+00 -3.9618241858e-01        102
XX       -6.9959136019e-01  5.8594144448e-01 -6.5566001672e-01 -2.4659626261e+01  1.7832006291e+01 -1.2672441906e+01          0  1.3666560000e-04  6.3067190346e+01 -1.6390674671e+01  1.2427408518e+02 -2.3729954862e+02 -1.0605552734e+03 -1.8317280840e+01        108
XX       -3.1154482112e-01  2.1942856774e-02 -2.1156837420e-01 -1.6134636211e+00  7.2334795540e-01 -1.0867001986e-01          0  1.2910320000e-04  1.4006800332e+00  3.6004434143e+00  4.9717204278e+00  4.6486845806e-02 -1.1085616312e-01  6.7207282679e-02        126
XX       -1.8810093072e-01  3.4001505818e-01 -4.8091465911e-01 -1.4683822961e+00  2.8206517048e+00 -2.5246099321e-01          0  1.1839560000e-04  1.2171124295e-02 -1.9388768043e+00  2.5691849864e+00 -5.6776355301e-02  2.2052032120e-01  1.6660021100e-01        137
XX       -6.2065954689e-02  1.2458400476e-02 -3.8907016668e-01 -9.8095994420e-01  3.5250355561e-01 -4.1950363407e-01          0  1.2329220000e-04  5.2362788252e+00 -8.3101178737e-01 -4.1384620415e+00 -5.0990154145e+01  1.0639235173e+02  3.5620883158e+00        150
XX       -3.8065993501e-01  1.7345219412e-04 -8.6914671934e-01 -6.7204115941e+00 -2.3046086471e+00  2.2738019003e+00          0  1.2976560000e-04  1.7153007272e+01 -2.1170775675e+01 -1.4432566451e+01 -1.0498699073e+03 -1.1800252340e+03  3.7419193626e+02        114
XX       -3.4369362285e-01  1.0550346455e+00 -8.5682802059e-01 -1.3134678554e+01  5.3918182036e+01 -2.4823885102e+00          0  1.2928500000e-04 -1.2824368873e+01  1.6144281642e+01  2.5721299568e+02  4.6150123322e+02  2.5018293774e+03 -1.3854242772e+02        174
XX       -2.9095530635e-01  1.0160513742e-01 -5.6621748775e-01 -2.0792967650e+00  1.7255923045e+00  1.6431396766e+00          0  1.2033840000e-04  6.7232718425e+00 -1.6778030335e+00 -3.2159033522e+00 -2.8712956620e+02  2.6125927966e+02 -1.7844657447e+01        175
XX       -2.9433728073e-02  6.1285897161e-01 -1.4652937608e-01 -1.1249859717e+00  3.6790429560e+00  4.8158201839e-01          0  1.2512280000e-04  4.9112859333e+00 -4.6437376827e-01 -4.9760937291e-01  1.7450968963e+02 -1.3575332522e+02  1.9414858702e+02        182
XX       -6.0411500346e-01  1.3477542215e-01 -1.2006723172e-01 -3.7090490227e+00 -1.7360861791e-01 -9.3644423743e-02          0  1.2423960000e-04  7.4064906105e+00  2.8838664115e+00  5.6066596351e+00  8.4996365730e+01  1.1946245731e+01 -2.8168611792e+01        189
XX        3.2879269597e-01  1.8996602557e-01 -1.1412440632e-01  2.2220372344e+00  1.9378677975e+00  7.1106937488e-01          0  1.2353580000e-04  3.1102220814e+00 -2.1931237866e+00 -1.1659751003e+00  6.4054108644e-02  2.0353615716e-01 -2.1247308519e-01          2
XX        7.3451807961e-01  7.0499091059e-01 -1.2755534931e-01  1.6379458115e+01  1.2736698892e+01  4.5698852627e+00          0  1.3634220000e-04  6.4753996358e-01  3.2222335903e+01 -1.2773742264e+01  1.9470545167e+02  4.9141008366e+03  2.2381722058e+03          3
XX        8.6085014675e-01  2.1524020200e-01 -5.6401426959e-01  2.3209446044e+01  2.3152376771e+00 -7.6067329809e+00          0  1.2853260000e-04 -1.5627977585e+01 -1.9236343674e+00 -1.8196379461e+01 -6.8691343229e+01  2.8755545721e+01  3.6607641482e+01          6
XX        5.0451879333e-01  4.5185047184e-02 -4.3135197338e-01  3.3945610052e+00  4.4536140200e-01 -4.3954250045e+00          0  1.2142920000e-04  7.9220649615e+00  1.1192717083e+01  4.7796341489e+00  1.8673461913e+00 -2.7355730963e+00  3.3119189277e+00         18
XX        3.0091663472e-01  5.1208798141e-01 -2.3666674658e-01  1.0391150047e+00  3.4048499266e+00 -3.6655138044e-01          0  1.3018560000e-04  5.3547810183e+00  5.0766629758e-01  2.2762784929e-01  1.2200742461e+01  1.2800236029e+00 -2.5502135075e+00         34
XX        9.6128877130e-02  2.6711923955e-01 -2.8705146800e-01  1.5379814620e+00  2.7641868610e+00  1.6945500912e+00          0  1.1549580000e-04  2.9888696439e+00 -1.4936559487e+00 -6.8636822512e-01 -2.9870815151e+03  2.8856480825e+02  2.5516416616e+03         35
XX        4.4723470598e-01  9.4921655888e-01 -1.1786785299e-01  1.1306731455e+01  1.8236931644e+01 -1.2280389736e+00          0  1.2430080000e-04 -2.9145119203e+01 -3.3724321570e+01 -3.9902965084e+01  1.3665244792e+02 -2.5852654903e+02  1.1625027656e+02         38
XX        6.3296438103e-01  1.9746738415e-02 -1.7382849125e-01  3.6494734223e+00  2.8147300682e-01 -3.2046710693e+00          0  1.1976420000e-04  1.6319735672e+01  1.0381912018e+01 -7.7014192818e-01  1.9981968970e+00 -3.6296142736e+00 -6.7050219677e+00         39
XX        7.0869504737e-01  3.5088768958e-01 -7.8742046874e-01  2.6622973460e+01  4.0677548750e+00 -1.6322604819e+01          0  1.0882560000e-04 -5.8992528291e+00 -1.1906733058e+01 -2.5281482261e+01 -2.1252271324e+00  3.0704634756e+01 -1.3983875170e+01         45
XX        1.7520042010e-01  8.7719370849e-01 -8.6130410979e-01  5.0405169127e+00 -2.5230475998e+00 -6.2552820496e+00          0  1.1161560000e-04  3.9812042895e+01 -1.0060859484e+01  3.4179749934e+01 -2.4153682675e+03  1.1003958362e+03  1.1164199563e+03         47
XX        6.9452623357e-03  6.9456833645e-02 -9.1154378102e-02  8.9330451402e-02  8.9385288537e-01 -6.5365868947e-02          0  1.2550140000e-04  2.2134162926e+00 -2.6291139118e+00  1.0090393707e+00  6.9190796357e-01  8.8289209310e-01  7.9419139450e-01         75
XX        1.0348455485e+00  4.6775980790e-02 -3.5477139835e-01  2.5628772305e+01  3.2468979122e-02 -7.4083475852e+00          0  1.2600840000e-04 -3.2947289831e+00 -2.0960781014e+01 -5.7458879063e+00  2.8108263604e+02  4.6697366959e+02  2.1810252694e+02         78
XX        3.2200992804e-01  2.9957851028e-01 -8.6986204314e-01  4.8393538257e+00  1.7673776604e+00 -2.9211780384e+00          0  1.2849060000e-04 -2.8518936747e+01  1.6644407000e+01 -1.6917435082e+01  1.7083570724e+03 -2.4071522844e+02  1.1361205310e+03         90
XX        7.3985263505e-01  5.5138512690e-01 -5.6902371635e-01  2.1461455782e+01  7.5836432046e+00 -1.5962341564e+01          0  1.3080480000e-04 -2.1268205093e+01 -3.4823374567e+01 -4.4594755444e+01  9.0248202300e+01  5.1893313629e+01 -8.3738483247e+01        107
XX        1.4183662812e-01  9.2392259954e-01 -3.3599578125e-01  2.8335280787e+00  1.4634385313e+01 -7.5354901308e+00          0  1.3253700000e-04 -3.4090297218e+01 -3.0811270725e+01 -2.5897733210e+01  1.0991233104e+01 -5.6033866440e+01  5.2022736457e+01        115
XX        5.5046573867e-01  8.9517182876e-01 -4.6982697141e-01  2.6503027846e+01  2.2522108982e+01 -7.3802771139e+00          0  1.2805140000e-04  6.2640860664e+00 -8.0428314980e+01 -5.2258510871e+01 -4.3941929347e+02 -2.9396050981e+03 -8.8769412105e+02        118
XX        5.6786936545e-02  2.2867880636e-01 -5.9022804552e-01  2.7224259456e+00  3.8843813649e+00  1.3349672382e+00          0  1.2202080000e-04  1.0054844427e+00 -1.9591127073e+00 -3.8225422375e+00 -2.3197089419e+02 -1.2187089462e+02  2.8990456027e+02        144
XX        4.3297235174e-01  6.4667393785e-01 -7.9523700106e-01  1.9154611446e+01  1.8204948728e+01 -1.9473676374e+01          0  1.3003560000e-04 -4.6381566960e+01  4.7809088197e+01  4.1323993426e+01  1.2690285657e+02  1.2182316083e+02  1.5926401975e+00        147
XX        5.6803067040e-02  5.2383502887e-01 -4.1993449568e-01 -5.6798434281e-02  5.0492999346e+00 -4.4483012843e-02          0  1.2477420000e-04  3.4585074740e+00 -2.5153026526e+00  3.5416252777e+00 -4.5733794884e+02 -2.2385968379e+02  3.4710918719e+02        149
XX        9.5355462473e-01  3.8206659022e-01 -2.7899124129e-01  2.1306302389e+01  4.0703056100e+00 -6.4672884077e+00          0  1.2445020000e-04 -2.1755587678e+01  4.5117206153e+00 -1.5017511085e+01  9.6060940805e+00 -7.8983525720e+01 -3.7063724604e+01        169
XX        6.4154736191e-01  7.5838814529e-02 -8.1108642592e-01  1.2595098081e+01  5.9323046240e-01 -4.2227137275e+00          0  1.3012020000e-04 -7.1588967226e+00  6.9661361640e+01 -1.0673013365e+01 -7.5948473375e+01  2.7683601168e+01  2.3342990089e+02        177
XX        3.4050684562e-01  2.9813545658e-01 -4.5801889243e-01  3.7208325113e+00  3.6428057439e+00 -3.6462748418e-01          0  1.2909900000e-04  5.4823967426e+00 -6.1484467673e-01 -9.2980944257e-01 -2.0893221397e+01 -8.9319304669e+00  9.1131354187e+00        180
XX        9.9487188890e-02  3.7406032588e-01 -2.0810250475e-03  4.1836554736e-01  2.5839899882e+00  1.6948258398e+00          0  1.2289560000e-04  2.7786023107e+00 -1.7087937711e+00  1.3645526772e+00  1.5628750682e+03 -3.9015414736e+02 -9.3182474677e+03        181
XX        5.6993010856e-01  3.2938567801e-01 -2.2422605522e-01  4.8568515764e+00  3.4509895715e+00 -1.0378047575e+00          0  1.2120120000e-04  9.7335019411e+00  2.2769246966e+00  7.0861956316e+00  3.8813210481e+00 -1.1945554691e+01 -1.5596198133e+00        187
XX        8.1076156776e-02  5.0496652092e-01 -8.1979247260e-01  5.1459344635e+00  7.7603821065e+00 -5.4496458013e+00          0  1.3426200000e-04 -3.4187443600e+01  4.4283658698e+00 -3.3230922656e+01 -6.7934594222e+01  1.0262340872e+02  8.3333425049e+01         79
XX        1.0210808858e+00  1.9089177482e-01 -2.7405943460e-03  2.0514946877e+01  3.3774176593e+00 -1.7626122042e+00          0  1.3438920000e-04 -1.8106253780e+00  7.4848554500e+00  7.9244369590e+00  1.8306581718e+00  2.5580507930e+00 -2.0054755275e+00        131
XX       -6.1871261943e-02 -9.1459617305e-02  8.7068364558e-01 -7.7200428343e-06  2.2506754255e-06 -9.9995595888e-02          0  1.3439640000e-04  1.5122120390e-05  5.5267771776e-05 -2.2095813376e-06 -4.6667136416e-01 -3.9685740505e-01  2.2874247022e+00          8
XX       -7.1265456940e-01 -6.0833544918e-01  7.2152204062e-01 -1.8724214313e+01 -2.4093233937e+01  2.3727062402e+01          0  1.2547560000e-04  3.4379592338e+01 -2.9031783371e+01 -3.6134332544e+01  1.3498330314e+02  2.2827682063e+02 -5.6821705180e+01         10
XX       -5.4036734976e-01 -2.7245329130e-01  2.3891194090e-01 -2.0539568916e+00 -2.9788667872e+00  1.7819003687e+00          0  1.3159200000e-04 -2.0646450349e+00  5.2844510746e+00  4.6088579606e+00 -5.6045493807e-01  1.5786568020e-01 -4.3215126529e-01         20
XX       -4.8884750317e-01 -2.6324727416e-02  4.6812586370e-01 -2.1960228289e+00 -2.7843836870e-01  3.1331074535e+00          0  1.1351040000e-04 -7.8900232980e-01  6.8575922408e+00 -1.2121558674e+00  1.3771795931e+00  2.6995148637e-01  6.1769138085e-01         40
XX       -4.4669057628e-01 -4.4818115934e-01  3.1720439522e-03 -1.7038837820e+00 -2.0057795265e+00  6.5863422568e-01          0  1.2726600000e-04 -2.5184155941e+00  6.2662963577e+00  1.7887621829e+00 -1.2021235531e+00 -7.9268091050e-01  1.0866984181e+00        193
XX       -4.9410475821e-01 -9.8716935653e-01  2.0876676351e-01 -1.4763846864e+01 -2.7274660506e+01  4.8873947709e+00          0  1.3111920000e-04  4.7281163613e+01 -2.4731649346e+01 -3.1111102645e+01  1.0027958377e+02  1.2818442108e+02  1.3442090723e+03         56
XX       -7.9936357300e-02 -4.3970504240e-01  8.6707822187e-01 -3.8514320594e-01 -9.4789390250e+00  3.4770219716e+00          0  1.3240020000e-04 -7.3232763474e+01  7.3099882689e+00  1.0644825363e+01 -1.0924762806e+01 -1.2910986162e+02  1.3185539168e+01         64
XX       -7.9149813705e-02 -2.4686834763e-01  3.0626115805e-01 -1.0717175581e-01 -1.8446083483e+00  3.0711737174e-01          0  1.2530460000e-04 -3.0716140639e+00  2.2368921586e+00 -1.9524358508e+00 -1.5247981553e-01  7.0325502681e-01  1.0556229542e+00         77
XX       -7.4203356490e-01 -7.5289101903e-01  2.8066691076e-01 -1.5986861423e+01 -2.2971999622e+01  6.5271770151e+00          0  1.3294140000e-04  3.8735742511e+01 -3.6917232753e+01 -6.0266308415e+00  8.4534743446e+01  8.6051893856e+01  1.7079948091e+01         81
XX       -3.5240304416e-01 -2.9033533000e-01  4.6892558249e-01 -1.0853121272e+00 -1.7849171674e+00  2.0836510500e+00          0  1.1821980000e-04  1.7416947815e+00  2.4042307735e+00  2.5048084911e+00  2.4552286906e-01 -2.8965756425e-01  1.0780156736e-01         83
XX       -1.2312994541e-03 -5.7788331501e-01  2.4958718470e-01 -5.6065972513e-01 -2.4669888904e+00  5.6584830747e-02          0  1.2844680000e-04  3.6652312118e-01  6.9744842503e+00  4.0701069241e+00  1.1244567789e+00 -4.3038722651e-01  6.3675949268e-01        139
XX       -1.7431618177e-01 -6.4404463307e-01  1.0795356413e-02 -1.5630721770e+00 -2.5378998840e+00  2.1546271677e-01          0  1.1817660000e-04 -3.7997903784e+00  3.8364591027e+00  5.2909135160e-02  5.5295896307e-01  5.2878090328e-01  2.1266238256e+00        100
XX       -2.9458216410e-01 -4.7978123217e-01  2.5384504627e-01 -1.0669575722e+00 -2.3065481046e+00  1.1004768547e+00          0  1.2963960000e-04 -2.7730805627e-01  4.2865727169e+00  2.6214315839e+00 -1.0074752185e+00 -9.6602875916e-02  5.2164693352e-02        103
XX       -9.4958226393e-02 -4.2090187902e-01  5.2123046699e-01 -7.1076182049e-01 -2.1499645574e+00  2.1086108983e+00          0  1.1767920000e-04  2.2665526131e+00 -1.5213772001e+00  1.3138119847e+00  1.0701550851e-02  3.0098724819e-01  3.3200640521e-01        113