200
Lattice="5.000000000000e+00 0.000000000000e+00 0.000000000000e+00 0.000000000000e+00 3.750000000000e+00 0.000000000000e+00 0.000000000000e+00 0.000000000000e+00 3.750000000000e+00" Properties=species:S:1:pos:R:3:vel:R:3:cluster:I:1:mass:R:1:vrot:R:3:arot:R:3:id:I:1 Time=0.00798
XX       -1.3064737269e+00 -5.2683690981e-02 -1.5654125412e-01 -5.4637253525e+01 -1.4253548358e+01  1.0999346258e+01          0  1.3043100000e-04 -1.0521736110e+01  1.1786014219e+02  5.3420405949e+01 -5.6237966522e+03 -2.7881407643e+03  7.7579503771e+03        159
XX       -9.1000601098e-01 -4.2310014891e-01 -7.1148234881e-01 -3.6685141262e+01 -2.3159776476e+01 -2.9166100104e+01          0  1.1903580000e-04 -5.0258085740e+00 -1.0376923619e+02  1.3554403776e+02 -2.6491875219e+04 -1.3892956123e+04 -7.1269162506e+03          4
XX       -1.0229436278e+00 -1.8733478650e-01 -8.8892997155e-01 -1.4710217659e+00 -1.1944767732e+01 -1.1098843740e+01          0  1.1257140000e-04  1.0162334392e+02 -2.4919870277e+01  4.2422126582e-01  4.4175607166e+04 -1.8297946025e+05 -2.6298463992e+04          9
XX       -4.5930692684e-01 -3.1330969837e-01 -2.6317145287e-01 -3.3999714901e+00 -2.6955526351e+00  5.7145390212e-02          0  1.2603000000e-04 -4.0095915277e+00  5.1891273020e+00  4.4602743923e+00  9.5298199903e-01  1.1919625611e+00 -5.2567163728e-01         12
XX       -2.5677003135e-01 -7.4782334586e-01 -7.1222702793e-01 -6.1554744623e+00 -1.6328789435e+01 -1.4141776192e+01          0  1.2183240000e-04 -2.8659966358e+00 -2.6705100184e+01  2.7369638155e+01 -6.5930924452e+01  7.9507760328e+00  7.0445406867e-01         23
XX       -1.1392846467e+00 -3.6128848100e-01 -2.3026002092e-01 -4.0230449423e+01 -1.1701934004e+01  2.1099330745e+00          0  1.2887460000e-04 -3.0715980168e+01  7.4070709211e+01  9.0752398995e+00 -3.8392604864e+03 -1.4417597438e+02  4.7311066872e+02         27
XX       -3.3104717088e-01 -3.9034675828e-01 -8.6499598201e-01 -6.4678890615e+00  2.7850759589e+00 -1.6550669481e+00          0  1.3367100000e-04 -3.3929929760e+00 -2.4202865167e+01 -2.9791986773e+01 -5.7238555880e+02  6.2241592307e+02  2.3761743193e+02         28
XX       -5.7860990796e-01 -6.1710106678e-01 -6.9329469334e-01 -1.4351440818e+01 -1.9196096091e+01 -1.6319419323e+01          0  1.3479300000e-04 -4.8956637381e+01  4.2673250136e+00 -1.6250161132e+01 -2.0931582235e+01 -6.6167482132e+01  4.5966794705e+01         31
XX       -7.6116490999e-01 -6.2425795235e-01 -3.3494253077e-01 -1.4934937768e+01 -1.4327271727e+01 -6.3447377833e+00          0  1.3246020000e-04  1.7909624563e+01 -1.7668688763e+01 -4.6481960476e+01  1.2795142623e+00 -8.0302362580e+00  3.5446819194e+00         33
XX       -5.0489433803e-02 -1.6931165379e-01 -8.8751570989e-01 -1.4446167170e-02  1.3911049292e-01  1.0526244261e-01          0  1.1486280000e-04 -6.0315196000e-01  1.4427143890e-01 -4.2220245061e-01  2.3339618016e-02  6.0935547698e-02 -1.2824304895e-02         49
XX       -6.7480472797e-01 -8.7151925271e-01 -1.2732445196e-01 -1.5481726608e+01 -2.4071594913e+01 -7.7414952877e+00          0  1.2709560000e-04  9.4594200574e+00 -3.6962452076e+01 -3.4049812508e+01  9.4654317963e+01 -1.1151863024e+02  1.4745222896e+02         51
XX       -2.8929591211e-01 -5.3317818861e-01 -2.3639736219e-01 -1.6900548396e+00 -2.1021791680e+00 -3.9961445034e-01          0  1.2161400000e-04 -1.8447521430e+00  5.9912632125e+00  2.7370838931e+00  1.0084368650e+01  9.8801032712e-01 -1.5504292462e+01         54
XX       -3.4691575141e-01 -1.0136154652e+00 -1.7830842561e-01 -5.7155123229e+00 -2.4186621462e+01 -7.2615989475e+00          0  1.2144120000e-04  1.5002397448e+01 -2.3555388638e-01  2.6341168829e+01  5.9610818063e+01 -1.9251483489e+01 -3.4264177056e+01         58
XX       -9.1690831301e-01 -5.6168864068e-01 -1.9382391910e-02 -2.7127271112e+01 -1.0782123045e+01 -3.1042978764e+00          0  1.3491660000e-04 -1.6593275630e+01  3.4581352084e+01 -2.4552481769e+01 -1.2455851074e+03 -1.5453492607e+03  5.4658535431e+02         73
XX       -3.3883617061e-02 -1.0091234218e+00 -1.6367058262e-01 -1.9778141150e+00 -1.8750349164e+01 -5.2201646656e+00          0  1.1962620000e-04  3.1560427225e+01 -3.8465145390e+00  5.2434846222e+00 -3.0415044786e+01 -2.3728846805e+02 -1.0119602826e+02         86
XX       -6.5616112859e-01 -2.6250782236e-01 -8.6214702836e-01 -1.8372385056e+00 -1.5607295307e+01 -1.1555015352e+01          0  1.2845280000e-04  1.1083694936e+02 -1.9634677314e+01  6.9141204355e-01  3.7669484773e+04  7.1286361643e+04 -9.3927062062e+04         88
XX       -4.7707346134e-03 -5.6806506749e-01 -8.4012529906e-01  1.5626402586e+00 -9.4058235319e+00 -6.2220074687e+00          0  1.3248720000e-04  4.7663482649e+01  1.2212504576e+01 -1.0374186678e+01 -1.6786664609e+01 -3.6519237426e+01 -9.5883011719e+01         87
XX       -6.1371945391e-01 -1.7287203887e-01 -6.2091305775e-02 -3.3139335588e+00 -2.3600068242e+00  9.4731617389e-01          0  1.2744360000e-04 -6.2100598622e+00  6.4560157465e+00 -7.9906401584e-01 -8.8006012754e-01 -1.0227898344e+00 -1.4176567688e+00        116
XX       -3.3316214361e-01 -1.7850582262e-01 -5.1156866059e-01 -2.4570449024e+00 -5.4096317471e-01 -2.6925715589e+00          0  1.1943660000e-04  5.0070319658e+00 -2.6951779040e+00 -1.7802376943e+00  4.3875422612e-01  1.2998311161e-01  1.0339116290e+00        120
XX       -5.7645771616e-01 -4.7350456148e-02 -3.8813608841e-01 -4.8114524828e+00 -2.4604419228e+00 -3.0483418338e+00          0  1.2176100000e-04 -1.6946417155e+01  8.2000787122e+00  3.8803670360e+00  9.5991725671e+00  2.2304186515e+01 -5.7509797154e+00        136
XX       -6.2555893168e-02 -1.1795389340e-01 -6.4368401469e-01 -1.2468227331e+00 -9.8221284019e-03  5.3294948649e-02          0  1.2576000000e-04 -6.0342944624e-01 -8.2812968750e-01  2.3965316073e+00  5.2116695334e-01 -1.8865797225e-01  6.6575225713e-02        143
XX       -1.2119608081e-01 -8.6327388990e-01 -4.1373389964e-01 -6.0135956531e-01 -1.0760340662e+01 -4.6107795823e+00          0  1.2842220000e-04  2.1656544403e+01 -1.0713900743e+01 -3.7093577907e+00  3.7243992927e+00  2.8041298590e+00  1.3681198419e+01        145
XX       -1.7520755232e-01 -4.0956142361e-01 -4.9056990513e-01 -2.2635529096e+00 -1.9028881390e+00 -1.8994705517e+00          0  1.1860680000e-04  1.7574191169e-02  1.9037430703e+00 -6.4279663972e+00  9.0674198106e-01 -1.3896135213e+00 -4.1069594403e-01        161
XX       -5.0462205186e-01 -8.3401011050e-01 -4.6526478651e-01 -1.0781210475e+01 -1.8423813993e+01 -1.1882333399e+01          0  1.2143400000e-04 -2.9635178635e+01 -7.5012346370e-01  2.1601546012e+01 -1.6527186298e+01  2.5419841164e+01 -2.1874697371e+01        170
XX       -1.3454599182e-01 -2.3427646726e-01 -2.3821818109e-01 -1.9830543005e+00 -1.7943242124e+00 -1.0386617661e+00          0  1.2938220000e-04 -1.6991318733e+00  3.1492727737e+00  1.6877015646e+00  6.0141079671e-01  3.4314803535e-01 -3.4686230343e-02        178
XX        1.0010119749e-01 -3.2439950185e-01 -4.8812103720e-01 -6.4658675552e-01 -2.3801055847e+00 -2.5825154022e+00          0  1.3201440000e-04 -8.7053405834e-01  4.5870992035e+00 -1.7778716836e+00  1.0987170376e+00  1.5915438990e-01 -1.2341425370e-01          0
XX        1.3980746216e-01 -6.1263863960e-01 -5.0480155246e-02 -1.1449808392e+00 -3.4189640638e+00 -1.5721511917e+00          0  1.2738720000e-04 -4.7126634156e+00  5.9269134309e+00 -5.2240010899e+00 -9.0173376587e-01  5.0899090349e+00  2.7229243935e+00          1
XX        2.4442997295e-01 -6.3200344273e-03 -8.7127754042e-01  1.2738946631e+00 -9.8370687082e-01 -4.3138406987e-01          0  1.2488220000e-04 -1.6568867425e+00  5.9116218945e+00 -9.2407120493e+00  1.5608911645e+00 -2.2535109009e+00 -9.6543163479e+00          5
XX        4.7607972490e-01 -7.9180754658e-01 -4.9182537331e-01  8.2408816221e+00 -1.5273482527e+01 -8.8279400348e+00          0  1.1653320000e-04 -6.2849450366e+00  1.3191077439e-01 -1.4588489282e+01  1.4896996605e+01  1.1124254270e+01 -6.2878366321e+00         26
XX        8.5666180344e-01 -7.0187959200e-01 -1.8436703052e-01  3.0607373998e+01 -1.5807569422e+01  3.8193400604e+00          0  1.3262220000e-04 -3.7639395531e+01 -2.9942298711e+01  9.9290172041e+00  6.8349832437e+02 -1.1937767045e+02  8.0921595457e+02         30
XX        8.1538021197e-01 -1.1329799098e-01 -6.0748998917e-01  1.9746232801e+01 -1.1819563879e+00 -6.3731174698e+00          0  1.3274340000e-04 -3.4239706549e+00  6.6872426875e+00  3.5035936333e+00 -2.0227057276e-01  1.6306994488e+00 -3.3043025124e+00         50
XX        2.3466988444e-01 -3.7922764362e-03 -5.8130996988e-01  9.9138007212e-01  8.6526127312e-01 -4.3015099244e-01          0  1.2481560000e-04 -1.6214511036e+00  9.5648316508e+00  8.1689141881e-01 -1.7533133575e+02 -4.7870033687e+02 -4.1402736624e+02         53
XX        2.5290975643e-01 -3.4775584142e-01 -8.5846167284e-01  5.8271720225e+00 -8.9729505439e+00 -3.2212590814e+00          0  1.2396840000e-04  5.9202254734e+01  3.8811544349e+01  2.5308171618e-01  3.1345442024e+01 -4.7726500406e+01 -1.9745819157e+01         59
XX        3.8985693793e-01 -2.5203008699e-01 -4.9665212387e-01  2.2207349819e+00 -2.1293998834e+00 -4.0236383049e+00          0  1.1450160000e-04 -1.8874316913e+00  1.3843525213e+01 -1.6712774779e+01  2.4508170958e-01 -9.2526317540e+00 -7.6823113059e+00         62
XX        6.2027793006e-01 -2.5903320819e-01 -8.3924107411e-01  1.5882876270e+01 -5.3545740757e+00 -1.0888416893e+01          0  1.2095520000e-04  4.3619928106e+01  7.7256975827e+01  2.8893764493e+01 -2.8028577756e+00 -4.7906848366e+01  1.3183810408e+02         68
XX        9.4784989665e-01 -4.7086647565e-01 -1.5053815843e-02  2.3160334169e+01 -8.8826081998e+00 -1.9058183124e+00          0  1.2158460000e-04 -3.5638304859e+01 -3.0338594220e+01  9.9344756704e+00  5.1938787783e+00 -2.3108846352e+01 -5.1916543018e+01         70
XX        2.2378741568e-01 -9.0129232480e-01 -3.1995843513e-01  3.2066964450e+00 -1.2911087904e+01 -4.7652322175e+00          0  1.3156620000e-04  9.9188300801e+00  2.3982820005e+00 -3.6643851891e+00 -6.9816919916e+01 -1.2514984058e+01  4.4831213236e+01         82
XX        1.7073297265e-03 -5.4686268344e-01 -2.8338229859e-01 -7.7809585355e-01 -1.6931366405e+00 -1.5412899576e+00          0  1.2666060000e-04 -3.1503381479e+00  5.4214323752e+00 -2.8556047673e+00  2.5436100960e+01 -2.8238652896e+01 -2.6557290682e+01        199
XX        4.1815305035e-01 -6.2082332129e-01 -7.4440386466e-01  1.2763622144e+01 -1.6558162743e+01 -1.2517573707e+01          0  1.3218480000e-04  1.6252924577e+01 -2.4787306408e+01 -2.1456168685e-01 -7.8984039579e+00 -5.3448711059e+00  1.9022260301e+01         98
XX        2.3847711856e-01 -3.0977277367e-02 -2.8564930427e-01  1.7282078185e+00  1.4333179044e+00 -1.1892991360e-01          0  1.2423360000e-04 -8.4025980167e-02  8.3416827910e+00  5.0792470524e+00 -4.7068545211e+02 -3.3132128674e+03 -8.8882381358e+02         99
XX        9.9729311115e-01 -3.7808538724e-01 -3.7348450864e-01  2.5671272981e+01 -2.0758113764e+01 -1.6982156329e+00          0  1.2896700000e-04 -2.7994481993e+01  5.2682454502e+00  3.3169218198e+01  2.4958016294e+02 -1.3010636969e+02 -5.1781054038e+02        101
XX        5.3005083147e-01 -8.6550480384e-01 -9.9368875794e-02  1.1362886674e+01 -1.5861868666e+01 -2.2875056698e-01          0  1.4014620000e-04  1.9302844723e+01 -1.9140383825e+01  1.5381000583e+01 -1.2994395112e+01 -1.1227368929e+01  2.3407040900e+00        110
XX        4.5127547232e-01 -4.3712420753e-01 -4.2210289203e-02  2.8316288095e+00 -2.6375634199e+00 -2.4419320144e+00          0  1.2798180000e-04  3.4608983375e+00 -3.1797346704e+00 -6.2960265091e+00 -2.6491432611e+00 -4.6169532457e-01 -1.2247845817e+00        117
XX        1.5519747650e-01 -2.6751129938e-01 -1.7228643530e-01 -2.2317660165e-01  2.3754944907e-01 -2.6336989400e+00          0  1.2702600000e-04  7.4324483223e-01  4.8350441436e+00  5.7709070232e+00 -2.6066728698e+00  2.8359011661e+01 -1.0895914722e+02        127
XX        1.3815094229e-01 -7.3361959090e-01 -5.7928857930e-01  4.0346603435e+00 -1.1627860624e+01 -3.7223099360e+00          0  1.4061720000e-04  2.1939302889e+01  9.1885578257e+00  8.6604158686e+00  4.4631255325e+01 -3.0399442494e+01 -5.5471618147e+01        134
XX        5.3595590688e-01 -2.5550039466e-01 -2.3573088589e-01  4.5957841892e+00 -2.3903305376e+00 -1.5904452951e+00          0  1.2793500000e-04  3.4631919851e+00 -3.1908059422e+00 -6.2799685855e+00 -1.4559251619e+00 -2.2926555688e+00  3.6100561819e-01        146
XX        1.2127645486e+00 -1.6666468311e-01 -7.5670945149e-02  4.1861925698e+01 -2.5661254407e+00 -2.4885460367e+00          0  1.2435360000e-04 -3.8180283354e+01 -1.2854027321e+01  5.5591939156e+00 -2.5518655271e+01  7.7436000094e+01  3.7756252237e+00        152
XX        3.1437061695e-01 -4.9805324477e-01 -3.2263547521e-01  1.2292446084e+00 -2.2270924738e+00 -3.3809551733e+00          0  1.2690540000e-04 -2.4889149961e+00  8.5700694012e+00 -6.4301853072e+00 -5.6480876524e+00 -1.8115224632e+00 -2.4018452527e-01        155
XX        8.4290984414e-01 -5.8811253844e-01 -6.7142230735e-01  3.1610545486e+01 -2.2013926428e+01 -2.1671377193e+01          0  1.3129020000e-04 -1.2246242440e+02 -7.4382952915e+01  1.4747441237e+01 -2.5574459435e+02  5.3465810407e+02  5.7216596063e+02        165
XX       -1.2590689333e+00  2.8916597898e-01 -1.1197230918e-01 -5.7931681164e+01 -8.9509048991e+00  2.6435297807e-01          0  1.3006740000e-04  1.7724348033e+01  6.4817795135e+01  5.7387631953e+01  1.3622886800e+03  2.6522479360e+02  3.3093742900e+03        195
XX       -4.8015273262e-01  8.6027579561e-01 -3.5788467207e-02 -2.8258523121e-01  1.8778680551e+01  2.0554351682e+00          0  1.3484940000e-04 -6.1391192942e+00  2.3607744613e+00  3.9337758672e+01 -2.5767995407e+03 -2.6174558292e+03  8.4657737688e+01          7
XX       -6.4981780020e-01  9.1031768213e-01 -3.8632896020e-01 -2.9125296233e+01  2.6169909687e+01 -1.1809072028e+00          0  1.1762280000e-04 -1.7565581812e+01  2.4909608100e+01  1.1147268837e+02 -2.2372229448e+02 -1.9828060851e+02  8.4125475867e+00         17
XX       -2.9833826045e-02  1.8939969992e-01 -8.6036622560e-01  3.2640755825e+00  7.5953574299e+00  2.8228013118e-01          0  1.3496400000e-04  2.0022309452e+00  2.4259985593e-01  4.2299635346e+00  1.3132628637e-01  2.6127716916e-01 -7.7136946666e-02         19
XX       -3.4602873296e-01  4.0130490219e-01 -8.7291986053e-01 -8.8927323479e+00  9.6658026006e+00 -1.0366729071e+00          0  1.3564680000e-04 -6.1483207735e+01 -8.3929931322e+01 -3.5145957788e+00 -1.5126852956e+05  1.7432330146e+05  6.5421689335e+02         36
XX       -3.0967635861e-01  1.1049485439e+00 -4.7736422381e-01 -1.9055978466e+01  4.7998287387e+01 -3.9805997911e+00          0  1.1544360000e-04  5.3652576788e+01  2.7001078903e+01  8.9166421467e+01 -3.8073331182e+02  1.1532955762e+02  1.9409425271e+02         37
XX       -2.4306597487e-01  1.0520715229e+00 -1.3693074594e-01 -3.7563951485e+00  2.8134185350e+01  2.9588477215e+00          0  1.3016460000e-04  2.2099178958e+01  2.1118334891e+01  3.2147568113e+01 -7.8395224135e+01  1.1452262797e+02 -2.1171234419e+01         42
XX       -2.7571562930e-01  5.4255479638e-01 -3.0247921809e-01 -2.2475493408e+00  3.1102715302e+00 -4.9788315772e-01          0  1.1548320000e-04  5.8639947470e-01 -1.6162226786e+00 -1.3789256939e+00  2.5375036574e-01  1.1187515101e-01 -2.2740618764e-02         48
XX       -8.8305416889e-01  5.2442164221e-01 -2.9310081008e-01 -2.9186600941e+01  1.4101583097e+00 -2.8020696703e+00          0  1.2434520000e-04  4.0763934149e+00  1.6948483043e+00  5.7449819263e+01  1.8955551953e+03  1.4065585759e+03 -1.4771599384e+03         55
XX       -9.4628097192e-01  2.3896157602e-01 -4.7742359100e-01 -2.7748402002e+01 -3.8143081290e+00 -1.0966520442e+01          0  1.3660440000e-04 -2.0438164785e+00  5.3160440198e+01  8.8830053560e+01 -5.9753586538e+02  1.1181617968e+02 -1.6209794268e+03        190
XX       -1.7290561817e-01  2.9868735731e-01 -1.6726839138e-01 -9.6872083617e-01  1.2358268893e+00 -5.8880434056e-03          0  1.2574020000e-04  2.2280337297e+00  1.4537105232e+00  2.6955435130e+00 -2.0923214429e-01 -2.9568975825e-01  3.3292309352e-01         80
XX       -4.9011670310e-01  4.0584821362e-01 -1.3587106007e-01 -2.9036693097e+00  8.9229841364e-01  8.3558999805e-01          0  1.1481960000e-04 -1.7576294930e+00  2.5871125050e+00  5.0120126804e+00 -2.2578625612e+00 -1.1266459776e+00 -2.9222533561e-01         95
XX       -7.0198411136e-01  2.0778258363e-01 -8.7229613310e-01  1.1063420904e+00  6.0056432968e-01  6.8092680747e-01          0  1.3678080000e-04 -4.5532604354e-01  4.2057432264e+00 -1.2217551551e+00  4.8674400639e-01  1.0085952255e-01  1.6855735801e-01         97
XX       -4.4735475034e-01  2.6031949074e-01 -3.6902860387e-01 -2.9305475306e+00  1.8220227655e+00 -2.5512942547e-01          0  1.2103140000e-04 -1.4756798172e+00 -5.2724383586e+00 -3.3493544769e+00  1.5667808322e+00  1.1638012262e+00 -3.9660833184e-01        102
XX       -6.9909816767e-01  5.8558480436e-01 -6.5540656788e-01 -2.4659626261e+01  1.7832006291e+01 -1.2672441710e+01          0  1.3666560000e-04  6.3071964063e+01 -1.6369470030e+01  1.2427443471e+02 -2.4007167345e+02 -1.0599071709e+03 -1.6635290317e+01        108
XX       -3.1151255185e-01  2.1928389815e-02 -2.1156620080e-01 -1.6134636211e+00  7.2334795540e-01 -1.0866982366e-01          0  1.2910320000e-04  1.4006791036e+00  3.6004456315e+00  4.9717190836e+00  4.6470669953e-02 -1.1085833828e-01  6.7213491177e-02        126
XX       -1.8807156307e-01  3.3995864514e-01 -4.8090960989e-01 -1.4683822961e+00  2.8206517048e+00 -2.5246079701e-01          0  1.1839560000e-04  1.2172259668e-02 -1.9388812147e+00  2.5691816544e+00 -5.6760902345e-02  2.2052272715e-01  1.6660256966e-01        137
XX       -6.2046336233e-02  1.2451349911e-02 -3.8906177514e-01 -9.8088942139e-01  3.5256045065e-01 -4.1966819427e-01          0  1.2329220000e-04  5.2377548985e+00 -8.3364366197e-01 -4.1387885150e+00 -1.0134743632e+02  1.5897161938e+02  3.3004597619e+01        150
XX       -3.8052549687e-01  2.1953584750e-04 -8.6919220710e-01 -6.7236525733e+00 -2.3036610542e+00  2.2749936694e+00          0  1.2976560000e-04  1.7178493590e+01 -2.1144913992e+01 -1.4441864933e+01 -1.5271903096e+03 -1.4167626712e+03  5.6595295970e+02        114
XX       -3.4343092927e-01  1.0539562818e+00 -8.5677837282e-01 -1.3134678554e+01  5.3918182036e+01 -2.4823883140e+00          0  1.2928500000e-04 -1.2833722368e+01  1.6094261174e+01  2.5721575433e+02  4.7384745801e+02  2.5002072206e+03 -1.3732155666e+02        174
XX       -2.9091372423e-01  1.0157062127e-01 -5.6625034591e-01 -2.0788836018e+00  1.7260339443e+00  1.6426095191e+00          0  1.2033840000e-04  6.7300939761e+00 -1.6841037953e+00 -3.2153013155e+00 -3.9792773510e+02  3.7245853580e+02 -4.5572991280e+01        175
XX       -2.9411231686e-02  6.1278539775e-01 -1.4653899472e-01 -1.1243216099e+00  3.6780047119e+00  4.7923737900e-01          0  1.2512280000e-04  4.8960081122e+00 -4.3955290636e-01 -5.1143471761e-01  4.1703671358e-02  1.0649638810e+00 -5.0024804579e-01        182
XX       -6.0404082393e-01  1.3477889631e-01 -1.2006536248e-01 -3.7089040729e+00 -1.7380769440e-01 -9.3279634309e-02          0  1.2423960000e-04  7.4047903561e+00  2.8836243442e+00  5.6072213036e+00  8.5028963697e+01  1.2260337860e+01 -2.7998307889e+01        189
XX        3.2874825522e-01  1.8992726822e-01 -1.1413862771e-01  2.2220372344e+00  1.9378677975e+00  7.1106957108e-01          0  1.2353580000e-04  3.1102208005e+00 -2.1931278572e+00 -1.1659708506e+00  6.4040416879e-02  2.0352389307e-01 -2.1248809393e-01          2
XX        7.3419041640e-01  7.0473623259e-01 -1.2764685183e-01  1.6386861130e+01  1.2731106393e+01  4.5803584379e+00          0  1.3634220000e-04  6.4366768801e-01  3.2124038851e+01 -1.2818508166e+01  1.9252477437e+02  4.9155867015e+03  2.2384096629e+03          3
XX        8.6038595750e-01  2.1519390040e-01 -5.6386214216e-01  2.3209478945e+01  2.3149226627e+00 -7.6060104610e+00          0  1.2853260000e-04 -1.5626601519e+01 -1.9242050045e+00 -1.8197109884e+01 -6.8915242566e+01  2.8308163735e+01  3.6434619646e+01          6
XX        5.0445090211e-01  4.5176139956e-02 -4.3126406488e-01  3.3945610052e+00  4.4536140200e-01 -4.3954248083e+00          0  1.2142920000e-04  7.9220276246e+00  1.1192771791e+01  4.7795679018e+00  1.8663402168e+00 -2.7351949080e+00  3.3127924936e+00         18
XX        3.0089585250e-01  5.1201988461e-01 -2.3665941535e-01  1.0391069930e+00  3.4048307929e+00 -3.6657157040e-01          0  1.3018560000e-04  5.3545380821e+00  5.0764161015e-01  2.2767844176e-01  1.2083114599e+01  1.1801411098e+00 -2.5053218739e+00         34
XX        9.6098082166e-02  2.6706397970e-01 -2.8708542838e-01  1.5417287599e+00  2.7624677504e+00  1.7039485247e+00          0  1.1549580000e-04  3.0750494527e+00 -1.5511137216e+00 -7.3101198574e-01 -6.0408796311e+03  7.2367189105e+03  1.2368651071e+03         35
XX        4.4700857135e-01  9.4885182025e-01 -1.1784329221e-01  1.1306731455e+01  1.8236931644e+01 -1.2280387774e+00          0  1.2430080000e-04 -2.9147855056e+01 -3.3719151480e+01 -3.9905287177e+01  1.3693277514e+02 -2.5848230862e+02  1.1595902420e+02         38
XX        6.3289139157e-01  1.9741108955e-02 -1.7376439783e-01  3.6494734223e+00  2.8147300682e-01 -3.2046708731e+00          0  1.1976420000e-04  1.6319695694e+01  1.0381984630e+01 -7.7000784381e-01  1.9996191088e+00 -3.6316110722e+00 -6.7034145182e+00         39
XX        7.0816258790e-01  3.5080633448e-01 -7.8709401665e-01  2.6622973460e+01  4.0677548750e+00 -1.6322604623e+01          0  1.0882560000e-04 -5.8992101323e+00 -1.1907347151e+01 -2.5281202619e+01 -2.1444488503e+00  3.0704668375e+01 -1.3980310371e+01         45
XX        1.7509958944e-01  8.7724411279e-01 -8.6117899371e-01  5.0427175931e+00 -2.5169220325e+00 -6.2565123223e+00          0  1.1161560000e-04  3.9868939491e+01 -1.0087863665e+01  3.4151528080e+01 -3.3377343251e+03  1.6381701917e+03  1.7502640997e+03         47
XX        6.9434757266e-03  6.9438956587e-02 -9.1153070786e-02  8.9330451402e-02  8.9385288537e-01 -6.5365672747e-02          0  1.2550140000e-04  2.2134024537e+00 -2.6291315698e+00  1.0090234876e+00  6.9197824306e-01  8.8290603994e-01  7.9411096839e-01         75
XX        1.0343329733e+00  4.6775328197e-02 -3.5462322403e-01  2.5628738746e+01  3.2790303830e-02 -7.4090841823e+00          0  1.2600840000e-04 -3.3003503326e+00 -2.0970119702e+01 -5.7502498245e+00  2.8105220472e+02  4.6689486569e+02  2.1808917309e+02         78
XX        3.2191314370e-01  2.9954317591e-01 -8.6980362114e-01  4.8391858653e+00  1.7666064943e+00 -2.9210757503e+00          0  1.2849060000e-04 -2.8526886446e+01  1.6645189797e+01 -1.6922640930e+01  5.8525181308e+01  1.2943058516e+01  3.3884814423e+01         90
XX        7.3942340593e-01  5.5123345404e-01 -5.6870446952e-01  2.1461455782e+01  7.5836432046e+00 -1.5962341367e+01          0  1.3080480000e-04 -2.1270008984e+01 -3.4824413518e+01 -4.4593080259e+01  9.0140874685e+01  5.2001797742e+01 -8.3779998271e+01        107
XX        1.4177995755e-01  9.2362991184e-01 -3.3584507145e-01  2.8335280787e+00  1.4634385313e+01 -7.5354899346e+00          0  1.3253700000e-04 -3.4090517665e+01 -3.0810149746e+01 -2.5898773160e+01  1.1053417645e+01 -5.6064052711e+01  5.1972201365e+01        115
XX        5.4993575695e-01  8.9472132698e-01 -4.6967925427e-01  2.6495145517e+01  2.2528063571e+01 -7.3914279789e+00          0  1.2805140000e-04  6.2728259163e+00 -8.0369575695e+01 -5.2240759181e+01 -4.3457118119e+02 -2.9343066061e+03 -8.8746433804e+02        118
XX        5.6732480387e-02  2.2860112550e-01 -5.9025474865e-01  2.7232598913e+00  3.8837288958e+00  1.3354324485e+00          0  1.2202080000e-04  1.0143742997e+00 -1.9547043105e+00 -3.8317906566e+00 -5.9943785203e+02 -2.9487644486e+02  6.0565642159e+02        144
XX        4.3258925951e-01  6.4630983888e-01 -7.9484752753e-01  1.9154611446e+01  1.8204948728e+01 -1.9473676177e+01          0  1.3003560000e-04 -4.6384106092e+01  4.7806652933e+01  4.1323958832e+01  1.2701025933e+02  1.2170319588e+02  1.8667665311e+00        147
XX        5.6804213821e-02  5.2373402924e-01 -4.1993361536e-01 -5.8280195202e-02  5.0509791504e+00 -4.2586182613e-02          0  1.2477420000e-04  3.4805442576e+00 -2.5296091837e+00  3.5427774645e+00 -7.3085179099e+02 -3.8717456580e+02  5.9640347374e+02        149
XX        9.5312849868e-01  3.8198518411e-01 -2.7886189552e-01  2.1306302389e+01  4.0703056100e+00 -6.4672882115e+00          0  1.2445020000e-04 -2.1755780047e+01  4.5133000832e+00 -1.5016769410e+01  9.6308265072e+00 -7.8963262634e+01 -3.7103762890e+01        169
XX        6.4129545995e-01  7.5826949920e-02 -8.1100197165e-01  1.2595098081e+01  5.9323046240e-01 -4.2227135313e+00          0  1.3012020000e-04 -7.1573743591e+00  6.9660808292e+01 -1.0677680978e+01 -7.6287856112e+01  2.7651177406e+01  2.3333128245e+02        177
XX        3.4043242890e-01  2.9806260025e-01 -4.5801160017e-01  3.7208393287e+00  3.6428266714e+00 -3.6459781326e-01          0  1.2909900000e-04  5.4828145905e+00 -6.1466594754e-01 -9.2999251334e-01 -2.0892007241e+01 -8.9420729477e+00  9.2015677676e+00        180
XX        9.9478946402e-02  3.7400867710e-01 -2.1149932404e-03  4.0896207243e-01  2.5848355852e+00  1.7058520194e+00          0  1.2289560000e-04  2.7423642054e+00 -1.6195991708e+00  1.4314629970e+00  1.3627296417e+03 -1.0359591352e+04  2.8349921161e+03        181
XX        5.6983297153e-01  3.2931665822e-01 -2.2420529913e-01  4.8568515764e+00  3.4509895715e+00 -1.0378045613e+00          0  1.2120120000e-04  9.7334243282e+00  2.2771636167e+00  7.0862267979e+00  3.8799612770e+00 -1.1946454074e+01 -1.5570085135e+00        187
XX        8.0973238086e-02  5.0481131328e-01 -8.1968347969e-01  5.1459344635e+00  7.7603821065e+00 -5.4496456051e+00          0  1.3426200000e-04 -3.4186084084e+01  4.4263144484e+00 -3.3232589899e+01 -6.8016961463e+01  1.0251871381e+02  8.3390874302e+01         79
XX        1.0206705869e+00  1.9082422646e-01 -2.7053421039e-03  2.0514946877e+01  3.3774176593e+00 -1.7626120080e+00          0  1.3438920000e-04 -1.8106619982e+00  7.4848042907e+00  7.9244770649e+00  1.8313599975e+00  2.5578831898e+00 -2.0051218696e+00        131
XX       -6.1871261729e-02 -9.1459617417e-02  8.7068564549e-01 -1.3361102740e-05  8.7085381637e-06 -9.9995693618e-02          0  1.3439640000e-04  2.0452921497e-05  5.9033139178e-05 -4.8380944563e-05 -4.7887370183e-02  3.7106321222e-02  2.2342388077e+00          8
XX       -7.1228008512e-01 -6.0785358450e-01  7.2104749937e-01 -1.8724214313e+01 -2.4093233937e+01  2.3727062598e+01          0  1.2547560000e-04  3.4376894512e+01 -2.9036349205e+01 -3.6133193715e+01  1.3479929142e+02  2.2830651535e+02 -5.7061160622e+01         10
XX       -5.4032627063e-01 -2.7239371397e-01  2.3887630289e-01 -2.0539568916e+00 -2.9788667872e+00  1.7819005649e+00          0  1.3159200000e-04 -2.0646338264e+00  5.2844479166e+00  4.6088666041e+00 -5.6039478306e-01  1.5793717740e-01 -4.3220401441e-01         20
XX       -4.8880358271e-01 -2.6319158648e-02  4.6806320155e-01 -2.1960228289e+00 -2.7843836870e-01  3.1331076497e+00          0  1.1351040000e-04 -7.8902987229e-01  6.8575868415e+00 -1.2121682233e+00  1.3770690556e+00  2.6998219848e-01  6.1789899305e-01         40
XX       -4.4665649861e-01 -4.4814104375e-01  3.1588712657e-03 -1.7038837820e+00 -2.0057795265e+00  6.5863442188e-01          0  1.2726600000e-04 -2.5183915500e+00  6.2663122113e+00  1.7887404508e+00 -1.2022895658e+00 -7.9268325820e-01  1.0865093424e+00        193
XX       -4.9380951171e-01 -9.8662382956e-01  2.0866901431e-01 -1.4760801971e+01 -2.7278037949e+01  4.8875250554e+00          0  1.3111920000e-04  4.7279163061e+01 -2.4734205639e+01 -3.1137957015e+01  9.9774005309e+01  1.2744318338e+02  1.3412201786e+03         56
XX       -7.9928654436e-02 -4.3951546362e-01  8.6700868143e-01 -3.8514320594e-01 -9.4789390250e+00  3.4770221678e+00          0  1.3240020000e-04 -7.3232544642e+01  7.3125706565e+00  1.0644563520e+01 -1.0958460458e+01 -1.2912885248e+02  1.2998668606e+01         64
XX       -7.9147670270e-02 -2.4683145546e-01  3.0625501571e-01 -1.0717175581e-01 -1.8446083483e+00  3.0711756794e-01          0  1.2530460000e-04 -3.0716110135e+00  2.2368780942e+00 -1.9524569636e+00 -1.5256195510e-01  7.0319007799e-01  1.0556610808e+00         77
XX       -7.4171382767e-01 -7.5243157904e-01  2.8053636722e-01 -1.5986861423e+01 -2.2971999622e+01  6.5271772113e+00          0  1.3294140000e-04  3.8734051738e+01 -3.6918954004e+01 -6.0269711496e+00  8.4542622617e+01  8.6073186352e+01  1.6950852854e+01         81
XX       -3.5238133792e-01 -2.9029963166e-01  4.6888390947e-01 -1.0853121272e+00 -1.7849171674e+00  2.0836512462e+00          0  1.1821980000e-04  1.7416898713e+00  2.4042365668e+00  2.5048063348e+00  2.4550262964e-01 -2.8966504911e-01  1.0782406807e-01         83
XX       -1.2200862595e-03 -5.7783397524e-01  2.4958605300e-01 -5.6065972513e-01 -2.4669888904e+00  5.6585026947e-02          0  1.2844680000e-04  3.6650063325e-01  6.9744928589e+00  4.0700941873e+00  1.1243367119e+00 -4.3046581572e-01  6.3691408813e-01        139
XX       -1.7428492032e-01 -6.4399387507e-01  1.0791047157e-02 -1.5630721770e+00 -2.5378998840e+00  2.1546291297e-01          0  1.1817660000e-04 -3.7998014358e+00  3.8364485285e+00  5.2866601959e-02  5.5278191517e-01  5.2863125223e-01  2.1266961964e+00        100
XX       -2.9456082495e-01 -4.7973510120e-01  2.5382303674e-01 -1.0669575722e+00 -2.3065481046e+00  1.1004770509e+00          0  1.2963960000e-04 -2.7728790667e-01  4.2865746484e+00  2.6214305415e+00 -1.0074840323e+00 -9.6546410425e-02  5.2079276129e-02        103
XX       -9.4944011156e-02 -4.2085887973e-01  5.2118829477e-01 -7.1076182049e-01 -2.1499645574e+00  2.1086110945e+00          0  1.1767920000e-04  2.2665523989e+00 -1.5213832200e+00  1.3138053447e+00  1.0722565235e-02  3.0100234398e-01  3.3199063972e-01        113